 Gaussian 16, Revision B.01,
 Gaussian 16:  ES64L-G16RevB.01 20-Dec-2017

 ------------------------------
 #p opt freq rwb97xd/6-31g(d,p)
 ------------------------------

 -----
 title
 -----
 Symbolic Z-matrix:
 Charge =  0 Multiplicity = 1

 SCF Done:  E(RwB97XD) =  -1154.86308870     A.U. after   15 cycles
 SCF Done:  E(RwB97XD) =  -1154.86873150     A.U. after   14 cycles
 SCF Done:  E(RwB97XD) =  -1154.86987744     A.U. after   14 cycles
 SCF Done:  E(RwB97XD) =  -1154.87018005     A.U. after   12 cycles
 SCF Done:  E(RwB97XD) =  -1154.87026869     A.U. after   11 cycles
 SCF Done:  E(RwB97XD) =  -1154.87028707     A.U. after   11 cycles
 SCF Done:  E(RwB97XD) =  -1154.87028901     A.U. after    8 cycles
 SCF Done:  E(RwB97XD) =  -1154.87028928     A.U. after    7 cycles
 SCF Done:  E(RwB97XD) =  -1154.87028937     A.U. after    7 cycles
 Optimization completed.
    -- Stationary point found.
 Normal termination of Gaussian 16 at Tue Jan 31 18:02:43 2023.

 ----------------------------------------------------------------------
 #P Geom=AllCheck Guess=TCheck SCRF=Check GenChk RwB97XD/6-31G(d,p) Fre
 q
 ----------------------------------------------------------------------

 Structure from the checkpoint file:  "1mer_Ph_S0_anti.chk"
 -----
 title
 -----
 Charge =  0 Multiplicity = 1

                         Standard orientation:
 ---------------------------------------------------------------------
 Center     Atomic      Atomic             Coordinates (Angstroms)
 Number     Number       Type             X           Y           Z
 ---------------------------------------------------------------------
      1          1           0        4.435677   -2.606388   -0.231397
      2          6           0        3.356437   -2.664594   -0.328848
      3          6           0        0.569521   -2.799826   -0.699768
      4          6           0        2.571309   -1.527073   -0.212788
      5          6           0        2.735491   -3.884182   -0.603806
      6          6           0        1.358363   -3.948847   -0.791078
      7          6           0        1.171317   -1.589434   -0.381275
      8          1           0        3.334927   -4.784470   -0.693673
      9          1           0        0.890493   -4.899083   -1.027388
     10          1           0       -0.491294   -2.867073   -0.908157
     11          6           0        2.946798   -0.115707   -0.003726
     12          6           0        1.825138    0.639775   -0.089644
     13          1           0        1.789433    1.700971    0.109068
     14          6           0        0.648524   -0.205519   -0.281946
     15          1           0       -4.435780    2.606331   -0.231253
     16          6           0       -3.356547    2.664605   -0.328741
     17          6           0       -0.569663    2.800007   -0.699804
     18          6           0       -2.571346    1.527130   -0.212737
     19          6           0       -2.735690    3.884236   -0.603706
     20          6           0       -1.358578    3.948982   -0.791055
     21          6           0       -1.171361    1.589573   -0.381277
     22          1           0       -3.335187    4.784487   -0.693533
     23          1           0       -0.890777    4.899247   -1.027383
     24          1           0        0.491130    2.867330   -0.908265
     25          6           0       -2.946755    0.115735   -0.003721
     26          6           0       -1.825064   -0.639688   -0.089728
     27          1           0       -1.789301   -1.700902    0.108896
     28          6           0       -0.648491    0.205678   -0.281947
     29          6           0       -4.302591   -0.380861    0.272258
     30          6           0       -6.864325   -1.376529    0.828160
     31          6           0       -5.157951    0.298025    1.149401
     32          6           0       -4.753603   -1.566015   -0.321422
     33          6           0       -6.022475   -2.060311   -0.044873
     34          6           0       -6.427119   -0.197450    1.425233
     35          1           0       -4.812770    1.203896    1.637694
     36          1           0       -4.104710   -2.086849   -1.019008
     37          1           0       -6.358149   -2.977689   -0.518023
     38          1           0       -7.074646    0.336285    2.113683
     39          1           0       -7.856805   -1.760298    1.041443
     40          6           0        4.302664    0.380807    0.272255
     41          6           0        6.864458    1.376320    0.828162
     42          6           0        5.158007   -0.298169    1.149344
     43          6           0        4.753723    1.565971   -0.321369
     44          6           0        6.022624    2.060190   -0.044816
     45          6           0        6.427205    0.197228    1.425180
     46          1           0        4.812791   -1.204049    1.637593
     47          1           0        4.104843    2.086876   -1.018915
     48          1           0        6.358333    2.977577   -0.517923
     49          1           0        7.074719   -0.336576    2.113587
     50          1           0        7.856959    1.760028    1.041449
 ---------------------------------------------------------------------

 SCF Done:  E(RwB97XD) =  -1154.87028937     A.U. after    1 cycles

 The electronic state is 1-A.
 Alpha  occ. eigenvalues --  -10.32299 -10.32226 -10.31488 -10.31488 -10.31421
 Alpha  occ. eigenvalues --  -10.31421 -10.30612 -10.30612 -10.30524 -10.30524
 Alpha  occ. eigenvalues --  -10.30501 -10.30501 -10.30486 -10.30486 -10.30461
 Alpha  occ. eigenvalues --  -10.30461 -10.30422 -10.30422 -10.30398 -10.30398
 Alpha  occ. eigenvalues --  -10.30379 -10.30378 -10.30231 -10.30231 -10.30170
 Alpha  occ. eigenvalues --  -10.30170 -10.30086 -10.30086 -10.29865 -10.29865
 Alpha  occ. eigenvalues --   -0.99773  -0.98517  -0.96008  -0.95852  -0.92786
 Alpha  occ. eigenvalues --   -0.91992  -0.88510  -0.86413  -0.84824  -0.84787
 Alpha  occ. eigenvalues --   -0.84407  -0.84358  -0.81983  -0.81570  -0.80199
 Alpha  occ. eigenvalues --   -0.75148  -0.71536  -0.70685  -0.70481  -0.69953
 Alpha  occ. eigenvalues --   -0.69583  -0.69286  -0.67678  -0.65571  -0.63684
 Alpha  occ. eigenvalues --   -0.63584  -0.61464  -0.60458  -0.58372  -0.56409
 Alpha  occ. eigenvalues --   -0.56110  -0.55286  -0.55031  -0.54575  -0.53656
 Alpha  occ. eigenvalues --   -0.53471  -0.53216  -0.52392  -0.51503  -0.50698
 Alpha  occ. eigenvalues --   -0.50625  -0.50605  -0.49843  -0.49738  -0.48842
 Alpha  occ. eigenvalues --   -0.48039  -0.47490  -0.46729  -0.45679  -0.45590
 Alpha  occ. eigenvalues --   -0.45259  -0.44019  -0.43436  -0.43179  -0.42551
 Alpha  occ. eigenvalues --   -0.42310  -0.42025  -0.41762  -0.41346  -0.39492
 Alpha  occ. eigenvalues --   -0.39455  -0.36389  -0.33906  -0.32960  -0.32954
 Alpha  occ. eigenvalues --   -0.32579  -0.32552  -0.29623  -0.28959  -0.26141
 Alpha virt. eigenvalues --   -0.03696   0.04889   0.05878   0.06415   0.06536
 Alpha virt. eigenvalues --    0.06688   0.06724   0.08899   0.12433   0.15301
 Alpha virt. eigenvalues --    0.17274   0.17338   0.17927   0.18319   0.19840

 Mulliken charges:
               1
     1  H    0.125824
     2  C   -0.160534
     3  C   -0.144261
     4  C    0.027158
     5  C   -0.129518
     6  C   -0.134368
     7  C    0.058487
     8  H    0.123555
     9  H    0.122467
    10  H    0.119619
    11  C   -0.009062
    12  C   -0.151596
    13  H    0.129028
    14  C   -0.019310
    15  H    0.125825
    16  C   -0.160533
    17  C   -0.144271
    18  C    0.027150
    19  C   -0.129518
    20  C   -0.134364
    21  C    0.058503
    22  H    0.123556
    23  H    0.122468
    24  H    0.119623
    25  C   -0.009064
    26  C   -0.151591
    27  H    0.129024
    28  C   -0.019314
    29  C    0.062977
    30  C   -0.118725
    31  C   -0.138386
    32  C   -0.133120
    33  C   -0.128320
    34  C   -0.130765
    35  H    0.129596
    36  H    0.122545
    37  H    0.125734
    38  H    0.126133
    39  H    0.124840
    40  C    0.062975
    41  C   -0.118725
    42  C   -0.138384
    43  C   -0.133120
    44  C   -0.128320
    45  C   -0.130766
    46  H    0.129596
    47  H    0.122546
    48  H    0.125734
    49  H    0.126133
    50  H    0.124840
 Sum of Mulliken charges =  -0.00000

 Dipole moment (field-independent basis, Debye):
    X=             -0.0000    Y=              0.0000    Z=              0.1819  Tot=              0.1819
 Quadrupole moment (field-independent basis, Debye-Ang):
   XX=           -143.6318   YY=           -151.8251   ZZ=           -175.1455
   XY=              3.3808   XZ=             -0.0002   YZ=              0.0000

  Exact polarizability: 597.803 -39.458 373.527  -0.003   0.001 141.906
 Approx polarizability: 536.201 -31.987 422.665  -0.004   0.002 188.166

                      1                      2                      3
                      A                      A                      A
 Frequencies --     18.0588                36.4202                37.8471
 Red. masses --      5.8872                 4.2180                 5.0429
 Frc consts  --      0.0011                 0.0033                 0.0043
 IR Inten    --      0.0702                 0.0901                 0.1055

                      4                      5                      6
                      A                      A                      A
 Frequencies --     57.7782                60.6381                71.1080
 Red. masses --      4.8184                 4.1545                 4.9717
 Frc consts  --      0.0095                 0.0090                 0.0148
 IR Inten    --      0.1470                 0.0054                 0.1038

                      7                      8                      9
                      A                      A                      A
 Frequencies --     84.1888                94.1297               100.1002
 Red. masses --      4.7595                 4.2177                 4.3694
 Frc consts  --      0.0199                 0.0220                 0.0258
 IR Inten    --      0.0894                 0.3974                 0.0442

                     10                     11                     12
                      A                      A                      A
 Frequencies --    157.9779               176.6770               197.2909
 Red. masses --      4.7976                 5.3614                 5.3629
 Frc consts  --      0.0705                 0.0986                 0.1230
 IR Inten    --      0.2228                 0.1414                 0.0166

                     13                     14                     15
                      A                      A                      A
 Frequencies --    211.0137               221.7056               234.2512
 Red. masses --      4.4767                 5.6442                 4.8267
 Frc consts  --      0.1174                 0.1635                 0.1561
 IR Inten    --      1.0770                 0.2062                 0.7696

                     16                     17                     18
                      A                      A                      A
 Frequencies --    263.4802               274.3550               298.6494
 Red. masses --      4.2487                 5.2619                 5.2577
 Frc consts  --      0.1738                 0.2334                 0.2763
 IR Inten    --      2.6867                 1.7235                 0.0332

                     19                     20                     21
                      A                      A                      A
 Frequencies --    335.8197               393.2980               421.3338
 Red. masses --      5.7240                 5.5181                 2.9780
 Frc consts  --      0.3803                 0.5029                 0.3115
 IR Inten    --      1.8119                 0.0710                 3.3298

                     22                     23                     24
                      A                      A                      A
 Frequencies --    421.9142               428.1689               431.3408
 Red. masses --      3.0150                 3.1955                 5.0584
 Frc consts  --      0.3162                 0.3452                 0.5545
 IR Inten    --      0.3067                 0.8689                 1.2472

                     25                     26                     27
                      A                      A                      A
 Frequencies --    440.0738               445.0517               495.3616
 Red. masses --      3.0702                 4.3556                 4.7134
 Frc consts  --      0.3503                 0.5083                 0.6814
 IR Inten    --      5.1315                 0.5425                 2.2348

                     28                     29                     30
                      A                      A                      A
 Frequencies --    514.7615               535.6861               590.7750
 Red. masses --      3.9560                 4.7103                 6.2694
 Frc consts  --      0.6176                 0.7964                 1.2892
 IR Inten    --      1.9495                 5.6505                 1.8228

                     31                     32                     33
                      A                      A                      A
 Frequencies --    604.0400               606.9341               614.7681
 Red. masses --      5.0837                 4.1515                 6.9140
 Frc consts  --      1.0928                 0.9010                 1.5396
 IR Inten    --      1.1601                 0.0332                19.1933

                     34                     35                     36
                      A                      A                      A
 Frequencies --    632.5574               633.3697               643.4650
 Red. masses --      5.2673                 5.4669                 6.0268
 Frc consts  --      1.2418                 1.2921                 1.4702
 IR Inten    --      0.4925                 0.6455                 0.0288

                     37                     38                     39
                      A                      A                      A
 Frequencies --    650.4219               656.9548               662.0684
 Red. masses --      4.6240                 5.5278                 3.1124
 Frc consts  --      1.1525                 1.4056                 0.8038
 IR Inten    --      1.5964                 0.0848                 9.9021

                     40                     41                     42
                      A                      A                      A
 Frequencies --    705.6702               710.8938               723.4939
 Red. masses --      2.7011                 5.3575                 1.8097
 Frc consts  --      0.7925                 1.5952                 0.5581
 IR Inten    --      2.8230                 1.5676                36.2352

                     43                     44                     45
                      A                      A                      A
 Frequencies --    724.3391               756.6467               763.8792
 Red. masses --      1.8648                 4.0574                 3.8452
 Frc consts  --      0.5764                 1.3686                 1.3220
 IR Inten    --     19.9292                 7.6772                 3.1945

                     46                     47                     48
                      A                      A                      A
 Frequencies --    770.9804               783.9480               785.9372
 Red. masses --      3.2409                 2.8947                 1.5054
 Frc consts  --      1.1350                 1.0481                 0.5479
 IR Inten    --      7.5181                20.6329                78.2050

                     49                     50                     51
                      A                      A                      A
 Frequencies --    787.4060               793.1713               805.2313
 Red. masses --      1.3647                 2.7551                 2.9304
 Frc consts  --      0.4985                 1.0212                 1.1195
 IR Inten    --      4.6223                25.8381                20.6335

                     52                     53                     54
                      A                      A                      A
 Frequencies --    809.3039               877.5698               878.0262
 Red. masses --      3.0354                 1.2801                 1.2502
 Frc consts  --      1.1714                 0.5808                 0.5679
 IR Inten    --     10.4913                 1.9810                 0.0022

                     55                     56                     57
                      A                      A                      A
 Frequencies --    882.5591               884.4962               892.5485
 Red. masses --      2.2728                 1.5259                 2.6679
 Frc consts  --      1.0430                 0.7034                 1.2522
 IR Inten    --     11.7289                15.5127                 3.0179

                     58                     59                     60
                      A                      A                      A
 Frequencies --    909.4121               911.5064               950.7898
 Red. masses --      1.4161                 1.3921                 2.2959
 Frc consts  --      0.6900                 0.6814                 1.2229
 IR Inten    --      1.4595                 1.9824                 1.2805

                     61                     62                     63
                      A                      A                      A
 Frequencies --    954.3460               959.8280               972.4045
 Red. masses --      1.4642                 2.3060                 1.4164
 Frc consts  --      0.7857                 1.2517                 0.7891
 IR Inten    --      3.3176                 1.1227                 0.8797

                     64                     65                     66
                      A                      A                      A
 Frequencies --    972.5581               979.5166              1000.9165
 Red. masses --      1.3924                 5.6004                 1.3565
 Frc consts  --      0.7759                 3.1659                 0.8007
 IR Inten    --      1.2811                 5.6600                 3.4311

                     67                     68                     69
                      A                      A                      A
 Frequencies --   1000.9986              1009.6193              1009.6823
 Red. masses --      1.3565                 1.3016                 1.3008
 Frc consts  --      0.8008                 0.7817                 0.7813
 IR Inten    --      0.0328                 0.0753                 0.0227

                     70                     71                     72
                      A                      A                      A
 Frequencies --   1021.7617              1021.7766              1025.8007
 Red. masses --      1.2790                 1.2789                 5.7107
 Frc consts  --      0.7867                 0.7867                 3.5405
 IR Inten    --      0.2285                 0.2269                 0.0227

                     73                     74                     75
                      A                      A                      A
 Frequencies --   1025.8989              1067.9664              1069.7881
 Red. masses --      5.6857                 2.3614                 2.0295
 Frc consts  --      3.5257                 1.5869                 1.3685
 IR Inten    --      3.3380                 0.7582                18.0728

                     76                     77                     78
                      A                      A                      A
 Frequencies --   1070.8801              1071.2847              1096.1046
 Red. masses --      2.2026                 2.3366                 2.9758
 Frc consts  --      1.4882                 1.5800                 2.1065
 IR Inten    --      9.1245                 0.0844                 0.0763

                     79                     80                     81
                      A                      A                      A
 Frequencies --   1121.0955              1121.1654              1124.7821
 Red. masses --      1.5320                 1.5964                 1.9037
 Frc consts  --      1.1345                 1.1823                 1.4190
 IR Inten    --      3.5087                10.2544                 2.3544

                     82                     83                     84
                      A                      A                      A
 Frequencies --   1131.9729              1151.0839              1186.5921
 Red. masses --      2.3990                 1.9705                 1.8877
 Frc consts  --      1.8111                 1.5383                 1.5659
 IR Inten    --      2.9343                 0.0848                37.4527

                     85                     86                     87
                      A                      A                      A
 Frequencies --   1195.7529              1195.8777              1197.3238
 Red. masses --      1.1499                 1.1218                 1.2400
 Frc consts  --      0.9687                 0.9453                 1.0474
 IR Inten    --      0.0136                 1.8316                14.3606

                     88                     89                     90
                      A                      A                      A
 Frequencies --   1198.6607              1199.8710              1219.3483
 Red. masses --      1.5752                 1.3787                 1.1283
 Frc consts  --      1.3335                 1.1695                 0.9884
 IR Inten    --      0.1705                 0.0998                 0.7617

                     91                     92                     93
                      A                      A                      A
 Frequencies --   1219.3561              1242.5650              1248.3913
 Red. masses --      1.1280                 1.6838                 3.3892
 Frc consts  --      0.9882                 1.5317                 3.1120
 IR Inten    --      7.7273                 0.1814                24.4742

                     94                     95                     96
                      A                      A                      A
 Frequencies --   1285.4500              1316.7595              1326.4701
 Red. masses --      2.3221                 1.9752                 1.6737
 Frc consts  --      2.2607                 2.0178                 1.7351
 IR Inten    --      0.5128                 2.2423                 7.0599

                     97                     98                     99
                      A                      A                      A
 Frequencies --   1332.6440              1337.2230              1343.4451
 Red. masses --      2.4211                 2.5497                 2.0392
 Frc consts  --      2.5333                 2.6863                 2.1685
 IR Inten    --      0.5810                 7.6479                 0.5438

                    100                    101                    102
                      A                      A                      A
 Frequencies --   1365.0936              1367.0109              1369.5398
 Red. masses --      4.9552                 3.1646                 2.0284
 Frc consts  --      5.4405                 3.4843                 2.2416
 IR Inten    --     16.0152                 1.6303                16.6736

                    103                    104                    105
                      A                      A                      A
 Frequencies --   1372.0493              1399.3820              1417.8284
 Red. masses --      2.3992                 3.6091                 4.0001
 Frc consts  --      2.6610                 4.1641                 4.7377
 IR Inten    --      0.0637               284.3285                 4.3794

                    106                    107                    108
                      A                      A                      A
 Frequencies --   1501.1673              1501.8119              1512.8181
 Red. masses --      2.3348                 2.3336                 2.9422
 Frc consts  --      3.1000                 3.1010                 3.9673
 IR Inten    --      1.6774                17.9267                 0.6270

                    109                    110                    111
                      A                      A                      A
 Frequencies --   1514.8864              1516.3508              1520.1111
 Red. masses --      2.8166                 2.5785                 2.6941
 Frc consts  --      3.8084                 3.4931                 3.6679
 IR Inten    --    246.6580                52.0487                 0.8891

                    112                    113                    114
                      A                      A                      A
 Frequencies --   1551.8715              1552.8315              1644.5967
 Red. masses --      2.4468                 2.4694                 6.3631
 Frc consts  --      3.4718                 3.5083                10.1400
 IR Inten    --      1.5797                17.5693                 1.2144

                    115                    116                    117
                      A                      A                      A
 Frequencies --   1651.4380              1664.2774              1664.6764
 Red. masses --      6.4168                 5.8187                 5.8347
 Frc consts  --     10.3108                 9.4957                 9.5264
 IR Inten    --      3.7773                 4.0905                 0.8327

                    118                    119                    120
                      A                      A                      A
 Frequencies --   1680.6955              1681.4586              1690.3755
 Red. masses --      7.0075                 6.9153                 6.6637
 Frc consts  --     11.6625                11.5195                11.2184
 IR Inten    --      0.1324                 6.5305                 0.1301

                    121                    122                    123
                      A                      A                      A
 Frequencies --   1692.4323              1697.0980              1699.3438
 Red. masses --      6.7707                 6.6292                 6.3362
 Frc consts  --     11.4263                11.2493                10.7806
 IR Inten    --      8.1830                 0.0129                 4.3987

                    124                    125                    126
                      A                      A                      A
 Frequencies --   1714.5287              3206.3806              3206.3947
 Red. masses --      9.9366                 1.0851                 1.0851
 Frc consts  --     17.2099                 6.5728                 6.5729
 IR Inten    --      0.2843                 6.8666                 0.4701

                    127                    128                    129
                      A                      A                      A
 Frequencies --   3209.1531              3209.1740              3212.9724
 Red. masses --      1.0861                 1.0861                 1.0883
 Frc consts  --      6.5901                 6.5901                 6.6194
 IR Inten    --      0.9153                 0.0225                 0.2721

                    130                    131                    132
                      A                      A                      A
 Frequencies --   3212.9870              3221.1597              3221.2202
 Red. masses --      1.0883                 1.0918                 1.0918
 Frc consts  --      6.6195                 6.6744                 6.6747
 IR Inten    --      1.5644                33.5551                 4.5843

                    133                    134                    135
                      A                      A                      A
 Frequencies --   3222.6435              3222.7254              3228.9903
 Red. masses --      1.0917                 1.0917                 1.0957
 Frc consts  --      6.6800                 6.6805                 6.7308
 IR Inten    --      1.6812                23.5903                20.2161

                    136                    137                    138
                      A                      A                      A
 Frequencies --   3229.0257              3233.3815              3233.4747
 Red. masses --      1.0956                 1.0962                 1.0962
 Frc consts  --      6.7307                 6.7522                 6.7527
 IR Inten    --     16.2028                53.1164                 0.0927

                    139                    140                    141
                      A                      A                      A
 Frequencies --   3237.2072              3237.3218              3247.0719
 Red. masses --      1.0994                 1.0994                 1.0947
 Frc consts  --      6.7882                 6.7885                 6.8003
 IR Inten    --     57.6041                 2.1786                 8.4045

                    142                    143                    144
                      A                      A                      A
 Frequencies --   3247.2204              3290.4758              3291.0085
 Red. masses --      1.0946                 1.0935                 1.0939
 Frc consts  --      6.8005                 6.9758                 6.9804
 IR Inten    --     11.3931                22.9231                 0.0168

 - Thermochemistry -
 -------------------
 Temperature   298.150 Kelvin.  Pressure   1.00000 Atm.
 Atom     1 has atomic number  1 and mass   1.00783

 Molecular mass:   380.15650 amu.
 Principal axes and moments of inertia in atomic units:
                           1         2         3
     Eigenvalues --  6328.51470********************
           X            1.00000   0.00254  -0.00000
           Y           -0.00254   1.00000   0.00000
           Z            0.00000  -0.00000   1.00000
 This molecule is an asymmetric top.
 Rotational symmetry number  1.
 Warning -- assumption of classical behavior for rotation
           may cause significant error
 Rotational temperatures (Kelvin)      0.01369     0.00389     0.00316
 Rotational constants (GHZ):           0.28518     0.08101     0.06589
 Zero-point vibrational energy    1067381.6 (Joules/Mol)
                                  255.11032 (Kcal/Mol)
 Warning -- explicit consideration of  33 degrees of freedom as
           vibrations may cause significant error
 Vibrational temperatures:     25.98    52.40    54.45    83.13    87.24
          (Kelvin)            102.31   121.13   135.43   144.02   227.29
                              254.20   283.86   303.60   318.98   337.04
                              379.09   394.74   429.69   483.17   565.87
                              606.21   607.04   616.04   620.60   633.17
                              640.33   712.71   740.63   770.73   849.99
                              869.08   873.24   884.51   910.11   911.28
                              925.80   935.81   945.21   952.57  1015.30
                             1022.82  1040.95  1042.16  1088.65  1099.05
                             1109.27  1127.93  1130.79  1132.90  1141.20
                             1158.55  1164.41  1262.63  1263.28  1269.81
                             1272.59  1284.18  1308.44  1311.45  1367.97
                             1373.09  1380.98  1399.07  1399.29  1409.31
                             1440.10  1440.21  1452.62  1452.71  1470.09
                             1470.11  1475.90  1476.04  1536.57  1539.19
                             1540.76  1541.34  1577.05  1613.01  1613.11
                             1618.31  1628.66  1656.15  1707.24  1720.42
                             1720.60  1722.68  1724.61  1726.35  1754.37
                             1754.38  1787.77  1796.16  1849.48  1894.52
                             1908.49  1917.38  1923.97  1932.92  1964.07
                             1966.82  1970.46  1974.07  2013.40  2039.94
                             2159.84  2160.77  2176.61  2179.58  2181.69
                             2187.10  2232.80  2234.18  2366.21  2376.05
                             2394.52  2395.10  2418.15  2419.24  2432.07
                             2435.03  2441.75  2444.98  2466.82  4613.27
                             4613.29  4617.26  4617.29  4622.75  4622.77
                             4634.53  4634.62  4636.67  4636.78  4645.80
                             4645.85  4652.11  4652.25  4657.62  4657.78
                             4671.81  4672.03  4734.26  4735.03

 Zero-point correction=                           0.406544 (Hartree/Particle)
 Thermal correction to Energy=                    0.428531
 Thermal correction to Enthalpy=                  0.429475
 Thermal correction to Gibbs Free Energy=         0.353647
 Sum of electronic and zero-point Energies=          -1154.463745
 Sum of electronic and thermal Energies=             -1154.441758
 Sum of electronic and thermal Enthalpies=           -1154.440814
 Sum of electronic and thermal Free Energies=        -1154.516642

                     E (Thermal)             CV                S
                      KCal/Mol        Cal/Mol-Kelvin    Cal/Mol-Kelvin
 Total                  268.907             90.255            159.594
 Electronic               0.000              0.000              0.000
 Translational            0.889              2.981             43.699
 Rotational               0.889              2.981             36.600
 Vibrational            267.130             84.294             79.296
 Vibration     1          0.593              1.986              6.837
 Vibration     2          0.594              1.982              5.445
 Vibration     3          0.594              1.982              5.369
 Vibration     4          0.596              1.974              4.532
 Vibration     5          0.597              1.973              4.436
 Vibration     6          0.598              1.968              4.122
 Vibration     7          0.601              1.960              3.791
 Vibration     8          0.603              1.953              3.572
 Vibration     9          0.604              1.949              3.452
 Vibration    10          0.621              1.894              2.574
 Vibration    11          0.628              1.871              2.363
 Vibration    12          0.637              1.844              2.158
 Vibration    13          0.643              1.824              2.035
 Vibration    14          0.648              1.808              1.945
 Vibration    15          0.654              1.788              1.846
 Vibration    16          0.670              1.740              1.639
 Vibration    17          0.677              1.721              1.569
 Vibration    18          0.692              1.676              1.424
 Vibration    19          0.717              1.604              1.232
 Vibration    20          0.760              1.485              0.988
 Vibration    21          0.784              1.424              0.887
 Vibration    22          0.784              1.423              0.885
 Vibration    23          0.790              1.409              0.865
 Vibration    24          0.792              1.402              0.854
 Vibration    25          0.800              1.383              0.826
 Vibration    26          0.804              1.372              0.811
 Vibration    27          0.851              1.260              0.670
 Vibration    28          0.870              1.217              0.622
 Vibration    29          0.891              1.171              0.575
 Vibration    30          0.948              1.051              0.466
 Vibration    31          0.963              1.023              0.443
 Vibration    32          0.966              1.017              0.438
 Vibration    33          0.974              1.001              0.425

 Optimization completed.
    -- Stationary point found.
 Normal termination of Gaussian 16 at Tue Jan 31 18:44:11 2023.
