 Gaussian 16, Revision C.01,
 Gaussian 16:  EM64M-G16RevC.01  3-Jul-2019

 ----------------------
 #p opt freq rhf/sto-3g
 ----------------------

 -------------------
 Title Card Required
 -------------------
 Symbolic Z-matrix:
 Charge =  0 Multiplicity = 1

 SCF Done:  E(RHF) =  -492.085644982     A.U. after   15 cycles
 SCF Done:  E(RHF) =  -492.091603224     A.U. after   13 cycles
 SCF Done:  E(RHF) =  -492.092233873     A.U. after   11 cycles
 SCF Done:  E(RHF) =  -492.092265906     A.U. after    9 cycles
 SCF Done:  E(RHF) =  -492.092275580     A.U. after    9 cycles
 Optimization completed.
    -- Stationary point found.
 Normal termination of Gaussian 16 at Fri Mar 17 23:26:11 2023.

 ---------------------------------------------------------------
 #P Geom=AllCheck Guess=TCheck SCRF=Check GenChk RHF/STO-3G Freq
 ---------------------------------------------------------------

 Structure from the checkpoint file:  "fulluorene.chk"
 -------------------
 Title Card Required
 -------------------
 Charge =  0 Multiplicity = 1

                         Standard orientation:
 ---------------------------------------------------------------------
 Center     Atomic      Atomic             Coordinates (Angstroms)
 Number     Number       Type             X           Y           Z
 ---------------------------------------------------------------------
      1          1           0       -0.000033    2.483012   -0.879198
      2          6           0        3.009779   -1.203774   -0.000148
      3          6           0        3.449819    0.111756   -0.000139
      4          6           0        2.540004    1.164723   -0.000082
      5          6           0        1.189207    0.877596   -0.000032
      6          6           0        0.744188   -0.449011   -0.000038
      7          6           0        1.651439   -1.496204   -0.000089
      8          1           0        3.732059   -2.010202   -0.000193
      9          1           0        4.512030    0.321418   -0.000185
     10          1           0        2.892120    2.188584   -0.000081
     11          1           0        1.314262   -2.524941   -0.000096
     12          6           0        0.000000    1.837208    0.000026
     13          1           0        0.000034    2.482988    0.879268
     14          6           0       -1.189207    0.877596    0.000057
     15          6           0       -2.540004    1.164723    0.000108
     16          6           0       -3.449819    0.111756    0.000162
     17          6           0       -3.009780   -1.203774    0.000094
     18          6           0       -1.651439   -1.496204    0.000054
     19          6           0       -0.744189   -0.449011    0.000024
     20          1           0       -2.892120    2.188584    0.000134
     21          1           0       -4.512030    0.321418    0.000207
     22          1           0       -3.732059   -2.010202    0.000120
     23          1           0       -1.314262   -2.524941    0.000036
 ---------------------------------------------------------------------

 SCF Done:  E(RHF) =  -492.092275580     A.U. after    1 cycles

 The electronic state is 1-A.
 Alpha  occ. eigenvalues --  -11.05566 -11.03053 -11.03028 -11.03015 -11.03010
 Alpha  occ. eigenvalues --  -11.02847 -11.02845 -11.02751 -11.02751 -11.02720
 Alpha  occ. eigenvalues --  -11.02720 -11.02649 -11.02649  -1.13124  -1.08382
 Alpha  occ. eigenvalues --   -1.02064  -0.97971  -0.95311  -0.91722  -0.88256
 Alpha  occ. eigenvalues --   -0.80298  -0.74411  -0.74268  -0.73173  -0.65466
 Alpha  occ. eigenvalues --   -0.62209  -0.59893  -0.57250  -0.56917  -0.56071
 Alpha  occ. eigenvalues --   -0.53506  -0.52958  -0.50990  -0.50476  -0.46206
 Alpha  occ. eigenvalues --   -0.44483  -0.44209  -0.43618  -0.41089  -0.40902
 Alpha  occ. eigenvalues --   -0.32259  -0.28269  -0.27220  -0.23078
 Alpha virt. eigenvalues --    0.21988   0.26530   0.27650   0.32621   0.47823
 Alpha virt. eigenvalues --    0.55105   0.55184   0.57718   0.60975   0.63694
 Alpha virt. eigenvalues --    0.64659   0.69211   0.69833   0.71730   0.72460

 Mulliken charges:
               1
     1  H    0.072239
     2  C   -0.064264
     3  C   -0.061882
     4  C   -0.072156
     5  C    0.009222
     6  C   -0.005690
     7  C   -0.067004
     8  H    0.061904
     9  H    0.061982
    10  H    0.061897
    11  H    0.063467
    12  C   -0.119429
    13  H    0.072239
    14  C    0.009222
    15  C   -0.072156
    16  C   -0.061882
    17  C   -0.064264
    18  C   -0.067004
    19  C   -0.005690
    20  H    0.061897
    21  H    0.061982
    22  H    0.061904
    23  H    0.063467
 Sum of Mulliken charges =  -0.00000

 Dipole moment (field-independent basis, Debye):
    X=             -0.0000    Y=              0.3653    Z=              0.0000  Tot=              0.3653
 Quadrupole moment (field-independent basis, Debye-Ang):
   XX=            -67.0083   YY=            -65.2627   ZZ=            -72.6303
   XY=              0.0000   XZ=             -0.0003   YZ=              0.0001

  Exact polarizability:     126.040      -0.000      91.015      -0.005       0.001      16.256
 Approx polarizability:     108.524       0.000      96.717      -0.004       0.001      14.132

                      1                      2                      3
                      A                      A                      A
 Frequencies --    111.1893               159.7804               243.1432
 Red. masses --      4.2831                 3.7564                 4.3752
 Frc consts  --      0.0312                 0.0565                 0.1524
 IR Inten    --      0.0436                 0.0000                 0.0068
 Raman Activ --      0.2337                 0.0130                 0.2345

                      4                      5                      6
                      A                      A                      A
 Frequencies --    284.1936               323.0057               470.0844
 Red. masses --      2.2180                 4.4591                 6.4116
 Frc consts  --      0.1055                 0.2741                 0.8348
 IR Inten    --      2.4435                 0.0000                 0.0092
 Raman Activ --      1.1894                 8.5994                 6.0268

                      7                      8                      9
                      A                      A                      A
 Frequencies --    487.6260               509.4802               550.4622
 Red. masses --      3.0050                 3.0485                 3.1102
 Frc consts  --      0.4210                 0.4662                 0.5552
 IR Inten    --      1.1564                 0.0000                 0.7990
 Raman Activ --      0.0008                 1.5498                 0.1744

                     10                     11                     12
                      A                      A                      A
 Frequencies --    555.8523               621.3908               665.4501
 Red. masses --      4.1712                 5.6987                 3.6092
 Frc consts  --      0.7593                 1.2964                 0.9417
 IR Inten    --      0.1384                 0.0528                 0.0000
 Raman Activ --      0.0263                 6.9070                 0.3861

                     13                     14                     15
                      A                      A                      A
 Frequencies --    716.4764               722.4419               835.2480
 Red. masses --      6.9001                 6.1243                 3.3661
 Frc consts  --      2.0870                 1.8833                 1.3836
 IR Inten    --      5.3014                 0.0138                 0.2545
 Raman Activ --      0.3561                 0.7217                 0.2097

                     16                     17                     18
                      A                      A                      A
 Frequencies --    856.0249               880.0374               896.9288
 Red. masses --      5.3385                 1.9668                 1.2255
 Frc consts  --      2.3049                 0.8975                 0.5809
 IR Inten    --      0.0054                 0.0000                28.8033
 Raman Activ --     16.0346                 3.3410                 0.2301

                     19                     20                     21
                      A                      A                      A
 Frequencies --    939.0275               940.6769               971.5491
 Red. masses --      3.7250                 1.8799                 5.1899
 Frc consts  --      1.9353                 0.9801                 2.8863
 IR Inten    --      0.0978                 0.0000                 0.0077
 Raman Activ --      0.1053                 0.9035                18.9198

                     22                     23                     24
                      A                      A                      A
 Frequencies --   1054.7388              1066.7052              1122.0743
 Red. masses --      1.2826                 1.3289                 1.6226
 Frc consts  --      0.8407                 0.8909                 1.2037
 IR Inten    --      0.5130                 0.0000                 0.4617
 Raman Activ --      7.6893                 1.1508                 0.0863

                     25                     26                     27
                      A                      A                      A
 Frequencies --   1156.2021              1157.9290              1174.4423
 Red. masses --      1.3703                 6.2039                 6.9007
 Frc consts  --      1.0793                 4.9010                 5.6080
 IR Inten    --      0.0000                 7.6009                 1.7491
 Raman Activ --      3.1252                20.2089                 2.2188

                     28                     29                     30
                      A                      A                      A
 Frequencies --   1174.9228              1175.4414              1199.4370
 Red. masses --      1.6438                 4.5507                 1.2878
 Frc consts  --      1.3370                 3.7045                 1.0916
 IR Inten    --      3.6268                 0.1327                 0.0000
 Raman Activ --      0.6574                25.4610                 0.5182

                     31                     32                     33
                      A                      A                      A
 Frequencies --   1200.0603              1219.6927              1220.6176
 Red. masses --      1.2837                 2.0174                 2.4833
 Frc consts  --      1.0892                 1.7682                 2.1799
 IR Inten    --      0.0058                 7.7420                 0.0589
 Raman Activ --      0.0061                 7.2705                 9.4377

                     34                     35                     36
                      A                      A                      A
 Frequencies --   1288.9845              1305.1168              1371.1934
 Red. masses --      1.8519                 1.4634                 1.1523
 Frc consts  --      1.8129                 1.4686                 1.2764
 IR Inten    --      0.7143                 0.3825                 0.2991
 Raman Activ --      5.4350                 7.4388                 0.5346

                     37                     38                     39
                      A                      A                      A
 Frequencies --   1374.1015              1374.1973              1395.5418
 Red. masses --      1.1273                 1.1480                 2.4623
 Frc consts  --      1.2541                 1.2773                 2.8254
 IR Inten    --      0.0000                 0.2210                 1.7236
 Raman Activ --      8.5016                 8.9537                 2.6645

                     40                     41                     42
                      A                      A                      A
 Frequencies --   1399.0498              1464.6181              1490.1017
 Red. masses --      1.7231                 1.6192                 1.8168
 Frc consts  --      1.9871                 2.0465                 2.3768
 IR Inten    --      1.9616                 0.2333                 2.5945
 Raman Activ --      0.2293                 8.5629                23.3831

                     43                     44                     45
                      A                      A                      A
 Frequencies --   1541.5214              1579.9491              1735.5955
 Red. masses --      2.1570                 1.6837                 2.5201
 Frc consts  --      3.0200                 2.4764                 4.4726
 IR Inten    --      0.1447                 3.5896                25.0484
 Raman Activ --     90.5583                 0.0014                 4.5890

                     46                     47                     48
                      A                      A                      A
 Frequencies --   1740.9647              1780.2356              1780.2958
 Red. masses --      2.3390                 2.9371                 3.0932
 Frc consts  --      4.1770                 5.4843                 5.7763
 IR Inten    --     42.0440                 9.8370                 0.0080
 Raman Activ --      0.5545                12.4365                42.6444

                     49                     50                     51
                      A                      A                      A
 Frequencies --   1788.8960              1915.0228              1923.5904
 Red. masses --      1.1568                 5.8138                 6.4833
 Frc consts  --      2.1811                12.5621                14.1342
 IR Inten    --      0.2776                 0.1647                 2.9528
 Raman Activ --     19.9398                51.9246                 0.7696

                     52                     53                     54
                      A                      A                      A
 Frequencies --   1951.0361              1951.8919              3586.3322
 Red. masses --      7.1388                 6.8364                 1.0663
 Frc consts  --     16.0106                15.3457                 8.0806
 IR Inten    --      1.1052                 0.0754                 0.0348
 Raman Activ --     18.9466               245.7439                72.2866

                     55                     56                     57
                      A                      A                      A
 Frequencies --   3692.6178              3708.8356              3710.0689
 Red. masses --      1.1077                 1.0899                 1.0900
 Frc consts  --      8.8992                 8.8328                 8.8395
 IR Inten    --      0.0494                 2.2344                 0.3367
 Raman Activ --     53.9811                16.4675                18.9404

                     58                     59                     60
                      A                      A                      A
 Frequencies --   3723.3340              3723.8101              3731.2764
 Red. masses --      1.0952                 1.0952                 1.1000
 Frc consts  --      8.9453                 8.9475                 9.0235
 IR Inten    --      1.4384                 0.4770                 1.8508
 Raman Activ --     58.0901                79.7812                43.9307

                     61                     62                     63
                      A                      A                      A
 Frequencies --   3731.7446              3741.3083              3741.6401
 Red. masses --      1.0999                 1.1046                 1.1045
 Frc consts  --      9.0249                 9.1096                 9.1102
 IR Inten    --     12.1763                 9.0713                 1.4995
 Raman Activ --     39.3011                 0.8235               295.1039

 - Thermochemistry -
 -------------------
 Temperature   298.150 Kelvin.  Pressure   1.00000 Atm.
 Atom     1 has atomic number  1 and mass   1.00783

 Molecular mass:   166.07825 amu.
 Principal axes and moments of inertia in atomic units:
                           1         2         3
     Eigenvalues --   821.445003076.742033887.05816
           X            1.00000   0.00000   0.00004
           Y           -0.00000   1.00000  -0.00001
           Z           -0.00004   0.00001   1.00000
 This molecule is an asymmetric top.
 Rotational symmetry number  1.
 Warning -- assumption of classical behavior for rotation
           may cause significant error
 Rotational temperatures (Kelvin)      0.10544     0.02815     0.02228
 Rotational constants (GHZ):           2.19703     0.58658     0.46429
 Zero-point vibrational energy     573640.5 (Joules/Mol)
                                  137.10337 (Kcal/Mol)
 Warning -- explicit consideration of  10 degrees of freedom as
           vibrations may cause significant error
 Vibrational temperatures:    159.98   229.89   349.83   408.89   464.73
          (Kelvin)            676.35   701.59   733.03   791.99   799.75
                              894.04   957.43  1030.85  1039.43  1201.74
                             1231.63  1266.18  1290.48  1351.05  1353.42
                             1397.84  1517.53  1534.75  1614.41  1663.52
                             1666.00  1689.76  1690.45  1691.20  1725.72
                             1726.62  1754.87  1756.20  1854.56  1877.77
                             1972.84  1977.03  1977.16  2007.87  2012.92
                             2107.26  2143.92  2217.91  2273.19  2497.13
                             2504.86  2561.36  2561.45  2573.82  2755.29
                             2767.62  2807.11  2808.34  5159.93  5312.85
                             5336.19  5337.96  5357.05  5357.73  5368.47
                             5369.15  5382.91  5383.39

 Zero-point correction=                           0.218488 (Hartree/Particle)
 Thermal correction to Energy=                    0.226261
 Thermal correction to Enthalpy=                  0.227205
 Thermal correction to Gibbs Free Energy=         0.185132
 Sum of electronic and zero-point Energies=           -491.873787
 Sum of electronic and thermal Energies=              -491.866015
 Sum of electronic and thermal Enthalpies=            -491.865071
 Sum of electronic and thermal Free Energies=         -491.907143

                     E (Thermal)             CV                S
                      KCal/Mol        Cal/Mol-Kelvin    Cal/Mol-Kelvin
 Total                  141.981             32.122             88.550
 Electronic               0.000              0.000              0.000
 Translational            0.889              2.981             41.230
 Rotational               0.889              2.981             30.664
 Vibrational            140.203             26.161             16.656
 Vibration     1          0.607              1.940              3.248
 Vibration     2          0.622              1.892              2.552
 Vibration     3          0.659              1.774              1.780
 Vibration     4          0.683              1.703              1.508
 Vibration     5          0.708              1.629              1.295
 Vibration     6          0.827              1.316              0.737
 Vibration     7          0.844              1.277              0.690
 Vibration     8          0.865              1.229              0.635
 Vibration     9          0.906              1.139              0.543
 Vibration    10          0.911              1.127              0.532

 Optimization completed.
    -- Stationary point found.
 Normal termination of Gaussian 16 at Fri Mar 17 23:26:15 2023.
