 Gaussian 16, Revision C.01,
 Gaussian 16:  EM64M-G16RevC.01  3-Jul-2019

 ------------------------------
 #p opt freq rwb97xd/6-31g(d,p)
 ------------------------------

 -----
 title
 -----
 Symbolic Z-matrix:
 Charge =  0 Multiplicity = 1

 SCF Done:  E(RwB97XD) =  -310.685157579     A.U. after   13 cycles
 SCF Done:  E(RwB97XD) =  -310.699865975     A.U. after   12 cycles
 SCF Done:  E(RwB97XD) =  -310.700579791     A.U. after   11 cycles
 SCF Done:  E(RwB97XD) =  -310.700596105     A.U. after    8 cycles
 SCF Done:  E(RwB97XD) =  -310.700597241     A.U. after    7 cycles
 Optimization completed.
    -- Stationary point found.
 Normal termination of Gaussian 16 at Thu Mar 16 21:34:21 2023.

 ----------------------------------------------------------------------
 #P Geom=AllCheck Guess=TCheck SCRF=Check GenChk RwB97XD/6-31G(d,p) Fre
 q
 ----------------------------------------------------------------------

 Structure from the checkpoint file:  "octatetraene.chk"
 -----
 title
 -----
 Charge =  0 Multiplicity = 1

                         Standard orientation:
 ---------------------------------------------------------------------
 Center     Atomic      Atomic             Coordinates (Angstroms)
 Number     Number       Type             X           Y           Z
 ---------------------------------------------------------------------
      1          6           0        2.212741    3.686490   -0.000000
      2          1           0        2.162091    4.769652   -0.000000
      3          1           0        3.202969    3.238656   -0.000000
      4          6           0        1.108968    2.933133   -0.000000
      5          1           0        0.132120    3.415210   -0.000000
      6          6           0        1.113192    1.479022   -0.000000
      7          1           0        2.087409    0.990027    0.000000
      8          6           0       -0.000000    0.724405   -0.000000
      9          1           0       -0.972731    1.216598   -0.000000
     10          6           0        0.000002   -0.724408    0.000000
     11          1           0        0.972732   -1.216602    0.000000
     12          6           0       -1.113190   -1.479021    0.000000
     13          1           0       -2.087405   -0.990024   -0.000000
     14          6           0       -1.108969   -2.933133    0.000000
     15          1           0       -0.132120   -3.415210    0.000000
     16          6           0       -2.212743   -3.686489    0.000000
     17          1           0       -2.162096   -4.769651    0.000000
     18          1           0       -3.202971   -3.238655    0.000000
 ---------------------------------------------------------------------

 SCF Done:  E(RwB97XD) =  -310.700597241     A.U. after    1 cycles

 The electronic state is 1-A'.
 Alpha  occ. eigenvalues --  -10.30575 -10.30544 -10.30523 -10.30521 -10.30430
 Alpha  occ. eigenvalues --  -10.30426 -10.29463 -10.29462  -0.92583  -0.89918
 Alpha  occ. eigenvalues --   -0.85885  -0.80939  -0.72136  -0.66100  -0.65325
 Alpha  occ. eigenvalues --   -0.63769  -0.56962  -0.55819  -0.53165  -0.50465
 Alpha  occ. eigenvalues --   -0.48080  -0.46551  -0.45030  -0.43425  -0.43291
 Alpha  occ. eigenvalues --   -0.42224  -0.39856  -0.34150  -0.26759
 Alpha virt. eigenvalues --    0.00839   0.09258   0.15779   0.17340   0.18551
 Alpha virt. eigenvalues --    0.20607   0.20934   0.20956   0.23488   0.23562
 Alpha virt. eigenvalues --    0.25401   0.27714   0.28467   0.28539   0.37042

 Mulliken charges:
               1
     1  C   -0.305292
     2  H    0.128005
     3  H    0.122001
     4  C   -0.062929
     5  H    0.114972
     6  C   -0.109535
     7  H    0.110176
     8  C   -0.107727
     9  H    0.110330
    10  C   -0.107726
    11  H    0.110330
    12  C   -0.109535
    13  H    0.110176
    14  C   -0.062929
    15  H    0.114972
    16  C   -0.305293
    17  H    0.128005
    18  H    0.122001
 Sum of Mulliken charges =  -0.00000

 Dipole moment (field-independent basis, Debye):
    X=             -0.0000    Y=             -0.0000    Z=             -0.0000  Tot=              0.0000
 Quadrupole moment (field-independent basis, Debye-Ang):
   XX=            -43.2485   YY=            -43.7916   ZZ=            -53.8438
   XY=             -0.3873   XZ=             -0.0000   YZ=              0.0000

  Exact polarizability:     131.766      81.381     185.561       0.000       0.000      30.098
 Approx polarizability:     139.035      68.700     159.439       0.000      -0.000      37.518

                      1                      2                      3
                     A"                     A'                     A"
 Frequencies --     59.0228                88.8094               146.6601
 Red. masses --      3.8945                 3.5890                 3.2252
 Frc consts  --      0.0080                 0.0167                 0.0409
 IR Inten    --      0.1625                 1.6405                 0.0000

                      4                      5                      6
                     A"                     A'                     A"
 Frequencies --    173.3944               226.6785               238.3512
 Red. masses --      1.7446                 3.0338                 2.4956
 Frc consts  --      0.0309                 0.0918                 0.0835
 IR Inten    --      0.6197                 0.0000                 0.5141

                      7                      8                      9
                     A'                     A"                     A'
 Frequencies --    344.5022               350.9323               396.7094
 Red. masses --      4.9324                 1.9561                 2.6217
 Frc consts  --      0.3449                 0.1419                 0.2431
 IR Inten    --      0.0000                 0.0000                 5.1280

                     10                     11                     12
                     A'                     A'                     A"
 Frequencies --    549.8032               579.1339               647.8461
 Red. masses --      2.6641                 3.5567                 1.2562
 Frc consts  --      0.4745                 0.7028                 0.3106
 IR Inten    --      0.0000                 4.4085                 8.7251

                     13                     14                     15
                     A"                     A"                     A"
 Frequencies --    690.2387               877.9335               924.4916
 Red. masses --      1.5733                 1.7827                 2.0089
 Frc consts  --      0.4416                 0.8096                 1.0116
 IR Inten    --      0.0000                 3.3403                 0.0000

                     16                     17                     18
                     A"                     A"                     A'
 Frequencies --    948.4457               948.4827               961.5124
 Red. masses --      1.3589                 1.3766                 1.5703
 Frc consts  --      0.7202                 0.7296                 0.8553
 IR Inten    --     82.0072                 0.0209                 1.3981

                     19                     20                     21
                     A"                     A'                     A"
 Frequencies --    974.5117               981.8079              1010.5761
 Red. masses --      1.1737                 1.4331                 1.1275
 Frc consts  --      0.6567                 0.8139                 0.6785
 IR Inten    --      0.0000                 0.0000                 9.0730

                     22                     23                     24
                     A"                     A"                     A'
 Frequencies --   1049.7549              1065.8577              1172.5802
 Red. masses --      1.1036                 1.0936                 1.6874
 Frc consts  --      0.7165                 0.7320                 1.3669
 IR Inten    --      0.0000                86.0533                13.8908

                     25                     26                     27
                     A'                     A'                     A'
 Frequencies --   1175.4484              1228.1462              1268.9452
 Red. masses --      3.5081                 1.7866                 1.3480
 Frc consts  --      2.8558                 1.5878                 1.2789
 IR Inten    --      0.0000                 0.0000                 7.5631

                     28                     29                     30
                     A'                     A'                     A'
 Frequencies --   1320.7702              1334.4167              1338.6355
 Red. masses --      1.3175                 1.3337                 1.6677
 Frc consts  --      1.3541                 1.3993                 1.7608
 IR Inten    --      0.0000                 7.4717                 0.0000

                     31                     32                     33
                     A'                     A'                     A'
 Frequencies --   1351.6677              1360.2490              1461.8601
 Red. masses --      1.2741                 1.3035                 1.2405
 Frc consts  --      1.3715                 1.4210                 1.5620
 IR Inten    --      0.3793                 0.0000                 2.2469

                     34                     35                     36
                     A'                     A'                     A'
 Frequencies --   1479.0540              1678.7359              1725.1106
 Red. masses --      1.2540                 4.7125                 4.5744
 Frc consts  --      1.6163                 7.8247                 8.0208
 IR Inten    --      0.0000                 7.8392                 0.0000

                     37                     38                     39
                     A'                     A'                     A'
 Frequencies --   1754.3124              1759.1183              3166.0664
 Red. masses --      5.3053                 5.1561                 1.0883
 Frc consts  --      9.6199                 9.4007                 6.4274
 IR Inten    --      0.0000                18.8922                 0.0000

                     40                     41                     42
                     A'                     A'                     A'
 Frequencies --   3167.5494              3168.6817              3171.6838
 Red. masses --      1.0863                 1.0850                 1.0818
 Frc consts  --      6.4214                 6.4186                 6.4118
 IR Inten    --      0.4828                 0.0000                 2.6748

                     43                     44                     45
                     A'                     A'                     A'
 Frequencies --   3174.0374              3175.4049              3182.5504
 Red. masses --      1.0725                 1.0765                 1.0866
 Frc consts  --      6.3658                 6.3953                 6.4841
 IR Inten    --      0.0000                71.3136                32.7550

                     46                     47                     48
                     A'                     A'                     A'
 Frequencies --   3182.7625              3271.8279              3271.8365
 Red. masses --      1.0869                 1.1160                 1.1160
 Frc consts  --      6.4868                 7.0388                 7.0389
 IR Inten    --      0.0040                 0.8317                25.9406

 - Thermochemistry -
 -------------------
 Temperature   298.150 Kelvin.  Pressure   1.00000 Atm.
 Atom     1 has atomic number  6 and mass  12.00000

 Molecular mass:   106.07825 amu.
 Principal axes and moments of inertia in atomic units:
                           1         2         3
     Eigenvalues --    92.237963160.272213252.51017
           X            0.47244   0.88136   0.00000
           Y            0.88136  -0.47244   0.00000
           Z            0.00000   0.00000   1.00000
 This molecule is an asymmetric top.
 Rotational symmetry number  1.
 Rotational temperatures (Kelvin)      0.93903     0.02741     0.02663
 Rotational constants (GHZ):          19.56614     0.57107     0.55488
 Zero-point vibrational energy     404199.7 (Joules/Mol)
                                   96.60604 (Kcal/Mol)
 Warning -- explicit consideration of  11 degrees of freedom as
           vibrations may cause significant error
 Vibrational temperatures:     84.92   127.78   211.01   249.48   326.14
          (Kelvin)            342.93   495.66   504.91   570.78   791.04
                              833.24   932.11   993.10  1263.15  1330.14
                             1364.60  1364.66  1383.40  1402.11  1412.60
                             1453.99  1510.36  1533.53  1687.08  1691.21
                             1767.03  1825.73  1900.29  1919.93  1926.00
                             1944.75  1957.09  2103.29  2128.03  2415.33
                             2482.05  2524.06  2530.98  4555.26  4557.40
                             4559.03  4563.35  4566.73  4568.70  4578.98
                             4579.29  4707.43  4707.44

 Zero-point correction=                           0.153952 (Hartree/Particle)
 Thermal correction to Energy=                    0.162832
 Thermal correction to Enthalpy=                  0.163776
 Thermal correction to Gibbs Free Energy=         0.120218
 Sum of electronic and zero-point Energies=           -310.546646
 Sum of electronic and thermal Energies=              -310.537765
 Sum of electronic and thermal Enthalpies=            -310.536821
 Sum of electronic and thermal Free Energies=         -310.580379

                     E (Thermal)             CV                S
                      KCal/Mol        Cal/Mol-Kelvin    Cal/Mol-Kelvin
 Total                  102.179             31.731             91.676
 Electronic               0.000              0.000              0.000
 Translational            0.889              2.981             39.894
 Rotational               0.889              2.981             28.341
 Vibrational            100.401             25.770             23.441
 Vibration     1          0.596              1.974              4.490
 Vibration     2          0.602              1.957              3.686
 Vibration     3          0.617              1.906              2.715
 Vibration     4          0.627              1.875              2.398
 Vibration     5          0.650              1.800              1.905
 Vibration     6          0.656              1.782              1.815
 Vibration     7          0.723              1.586              1.191
 Vibration     8          0.728              1.573              1.162
 Vibration     9          0.763              1.477              0.975
 Vibration    10          0.905              1.140              0.545
 Vibration    11          0.936              1.076              0.487

 Optimization completed.
    -- Stationary point found.
 Normal termination of Gaussian 16 at Thu Mar 16 21:35:00 2023.
