 Gaussian 16, Revision B.01,
 Gaussian 16:  ES64L-G16RevB.01 20-Dec-2017

 --------------------------
 #p opt freq b3lyp/6-31G(d)
 --------------------------

 -----
 title
 -----
 Symbolic Z-matrix:
 Charge =  0 Multiplicity = 1

 SCF Done:  E(RB3LYP) =  -693.180231798     A.U. after   12 cycles
 SCF Done:  E(RB3LYP) =  -693.180997064     A.U. after   10 cycles
 SCF Done:  E(RB3LYP) =  -693.181009006     A.U. after    8 cycles
 Optimization completed.
    -- Stationary point found.
 Normal termination of Gaussian 16 at Fri Mar 17 10:27:25 2023.

 --------------------------------------------------------------------
 #P Geom=AllCheck Guess=TCheck SCRF=Check GenChk RB3LYP/6-31G(d) Freq
 --------------------------------------------------------------------

 Structure from the checkpoint file:  "/home/wangzhe/g16/Scratch/Gau-151994.chk"
 -----
 title
 -----
 Charge =  0 Multiplicity = 1

                         Standard orientation:
 ---------------------------------------------------------------------
 Center     Atomic      Atomic             Coordinates (Angstroms)
 Number     Number       Type             X           Y           Z
 ---------------------------------------------------------------------
      1          6           0        0.710679    1.257372    0.000000
      2          6           0        1.444256   -0.013220   -0.000000
      3          6           0        0.733576   -1.244152    0.000000
      4          6           0        2.857044   -0.051619   -0.000000
      5          6           0        3.556860   -1.244706   -0.000000
      6          6           0        2.856377   -2.457978    0.000000
      7          6           0        1.473226   -2.448463    0.000000
      8          6           0       -0.733576   -1.244152    0.000000
      9          6           0       -1.444256   -0.013220   -0.000000
     10          6           0       -0.710679    1.257372   -0.000000
     11          6           0        1.383819    2.500083    0.000000
     12          1           0        3.422967    0.872261    0.000000
     13          1           0        4.643375   -1.236128   -0.000000
     14          1           0        3.392206   -3.403217    0.000000
     15          1           0        0.956083   -3.400507    0.000000
     16          6           0       -1.473226   -2.448463    0.000000
     17          6           0       -2.857044   -0.051619   -0.000000
     18          6           0       -1.383819    2.500083   -0.000000
     19          6           0       -0.700483    3.702684   -0.000000
     20          6           0        0.700483    3.702684    0.000000
     21          1           0        2.466884    2.528246    0.000000
     22          1           0        1.251169    4.639345    0.000000
     23          1           0       -1.251169    4.639345   -0.000000
     24          1           0       -2.466884    2.528246   -0.000000
     25          6           0       -2.856377   -2.457978    0.000000
     26          6           0       -3.556860   -1.244706   -0.000000
     27          1           0       -0.956083   -3.400507    0.000000
     28          1           0       -3.422967    0.872261   -0.000000
     29          1           0       -3.392206   -3.403217    0.000000
     30          1           0       -4.643375   -1.236128   -0.000000
 ---------------------------------------------------------------------

 SCF Done:  E(RB3LYP) =  -693.181009006     A.U. after    1 cycles

 The electronic state is 1-A1'.
 Alpha  occ. eigenvalues --  -10.20070 -10.20052 -10.20052 -10.20011 -10.20011
 Alpha  occ. eigenvalues --  -10.19992 -10.18961 -10.18961 -10.18961 -10.18918
 Alpha  occ. eigenvalues --  -10.18917 -10.18917 -10.18859 -10.18859 -10.18859
 Alpha  occ. eigenvalues --  -10.18851 -10.18850 -10.18850  -0.88365  -0.84637
 Alpha  occ. eigenvalues --   -0.84637  -0.78723  -0.76991  -0.76991  -0.72751
 Alpha  occ. eigenvalues --   -0.71725  -0.71725  -0.63864  -0.62228  -0.62228
 Alpha  occ. eigenvalues --   -0.58344  -0.58344  -0.55000  -0.54015  -0.49428
 Alpha  occ. eigenvalues --   -0.49428  -0.48064  -0.46461  -0.46461  -0.42733
 Alpha  occ. eigenvalues --   -0.42733  -0.42008  -0.42008  -0.41562  -0.41394
 Alpha  occ. eigenvalues --   -0.40384  -0.37513  -0.35907  -0.35781  -0.35781
 Alpha  occ. eigenvalues --   -0.35753  -0.35753  -0.32021  -0.32021  -0.29024
 Alpha  occ. eigenvalues --   -0.27759  -0.27759  -0.23434  -0.21491  -0.21491
 Alpha virt. eigenvalues --   -0.03417  -0.03417  -0.02499   0.03281   0.03281
 Alpha virt. eigenvalues --    0.05435   0.09135   0.09724   0.09724   0.13387
 Alpha virt. eigenvalues --    0.13387   0.15236   0.15236   0.15307   0.16718

 Mulliken charges:
               1
     1  C    0.070285
     2  C    0.070285
     3  C    0.070285
     4  C   -0.202274
     5  C   -0.131601
     6  C   -0.131601
     7  C   -0.202274
     8  C    0.070285
     9  C    0.070285
    10  C    0.070285
    11  C   -0.202274
    12  H    0.134143
    13  H    0.129448
    14  H    0.129448
    15  H    0.134143
    16  C   -0.202274
    17  C   -0.202274
    18  C   -0.202274
    19  C   -0.131601
    20  C   -0.131601
    21  H    0.134143
    22  H    0.129448
    23  H    0.129448
    24  H    0.134143
    25  C   -0.131601
    26  C   -0.131601
    27  H    0.134143
    28  H    0.134143
    29  H    0.129448
    30  H    0.129448
 Sum of Mulliken charges =  -0.00000

 Dipole moment (field-independent basis, Debye):
    X=             -0.0000    Y=              0.0000    Z=              0.0000  Tot=              0.0000
 Quadrupole moment (field-independent basis, Debye-Ang):
   XX=            -89.0052   YY=            -89.0052   ZZ=           -109.3050
   XY=              0.0000   XZ=              0.0000   YZ=             -0.0000

  Exact polarizability: 257.741  -0.000 257.738  -0.000   0.000  55.140
 Approx polarizability: 440.112   0.000 440.112   0.000  -0.000  90.162

                      1                      2                      3
                     E"                     E"                     A1"
 Frequencies --     50.0588                50.0588               106.9024
 Red. masses --      3.7669                 3.7669                 3.2272
 Frc consts  --      0.0056                 0.0056                 0.0217
 IR Inten    --      0.0000                 0.0000                 0.0000

                      4                      5                      6
                     A2"                    E'                     E'
 Frequencies --    123.8797               263.3619               263.3619
 Red. masses --      4.9625                 4.8444                 4.8444
 Frc consts  --      0.0449                 0.1980                 0.1980
 IR Inten    --      1.7593                 0.2787                 0.2788

                      7                      8                      9
                     E"                     E"                     E'
 Frequencies --    274.3967               274.3967               409.9247
 Red. masses --      4.0400                 4.0400                 6.4628
 Frc consts  --      0.1792                 0.1792                 0.6399
 IR Inten    --      0.0000                 0.0000                 0.7940

                     10                     11                     12
                     E'                     A1'                    A2"
 Frequencies --    409.9247               423.6776               433.8400
 Red. masses --      6.4628                 7.1114                 3.2546
 Frc consts  --      0.6399                 0.7521                 0.3609
 IR Inten    --      0.7941                 0.0000                 2.9715

                     13                     14                     15
                     E"                     E"                     E"
 Frequencies --    437.9618               437.9618               557.2500
 Red. masses --      3.2123                 3.2123                 3.1292
 Frc consts  --      0.3630                 0.3630                 0.5725
 IR Inten    --      0.0000                 0.0000                 0.0000

                     16                     17                     18
                     E"                     A2'                    A1"
 Frequencies --    557.2500               565.0049               578.2388
 Red. masses --      3.1292                 4.5093                 3.5503
 Frc consts  --      0.5725                 0.8481                 0.6994
 IR Inten    --      0.0000                 0.0000                 0.0000

                     19                     20                     21
                     A2'                    E'                     E'
 Frequencies --    616.9940               635.4425               635.4425
 Red. masses --      7.5734                 6.7867                 6.7867
 Frc consts  --      1.6987                 1.6146                 1.6146
 IR Inten    --      0.0000                 5.6059                 5.6059

                     22                     23                     24
                     A1'                    E"                     E"
 Frequencies --    712.8785               720.9276               720.9276
 Red. masses --      5.5452                 2.3203                 2.3203
 Frc consts  --      1.6603                 0.7105                 0.7105
 IR Inten    --      0.0000                 0.0000                 0.0000

                     25                     26                     27
                     A2"                    A1"                    E"
 Frequencies --    758.2719               782.7833               784.3729
 Red. masses --      1.1911                 1.8659                 2.0726
 Frc consts  --      0.4035                 0.6736                 0.7513
 IR Inten    --    143.1919                 0.0000                 0.0000

                     28                     29                     30
                     E"                     E'                     E'
 Frequencies --    784.3729               789.2093               789.2093
 Red. masses --      2.0726                 5.7564                 5.7564
 Frc consts  --      0.7513                 2.1125                 2.1125
 IR Inten    --      0.0000                 0.0000                 0.0000

                     31                     32                     33
                     E"                     E"                     A1"
 Frequencies --    864.7572               864.7572               875.7606
 Red. masses --      1.4375                 1.4375                 2.9481
 Frc consts  --      0.6333                 0.6333                 1.3322
 IR Inten    --      0.0000                 0.0000                 0.0000

                     34                     35                     36
                     E"                     E"                     A2"
 Frequencies --    924.9123               924.9123               946.5011
 Red. masses --      1.3541                 1.3541                 1.3252
 Frc consts  --      0.6825                 0.6825                 0.6995
 IR Inten    --      0.0000                 0.0000                 1.1329

                     37                     38                     39
                     A1"                    E"                     E"
 Frequencies --    970.0559               979.8712               979.8712
 Red. masses --      1.3024                 1.2576                 1.2576
 Frc consts  --      0.7221                 0.7114                 0.7114
 IR Inten    --      0.0000                 0.0000                 0.0000

                     40                     41                     42
                     A2'                    E'                     E'
 Frequencies --   1015.0815              1022.5687              1022.5687
 Red. masses --      7.6673                 7.0827                 7.0827
 Frc consts  --      4.6548                 4.3635                 4.3635
 IR Inten    --      0.0000                 1.5995                 1.5995

                     43                     44                     45
                     E'                     E'                     A1'
 Frequencies --   1086.0710              1086.0710              1098.6293
 Red. masses --      1.8553                 1.8553                 2.5377
 Frc consts  --      1.2894                 1.2894                 1.8047
 IR Inten    --      3.6331                 3.6338                 0.0000

                     46                     47                     48
                     E'                     E'                     A2'
 Frequencies --   1141.1133              1141.1133              1179.1286
 Red. masses --      2.4009                 2.4009                 1.3195
 Frc consts  --      1.8419                 1.8419                 1.0809
 IR Inten    --      0.3260                 0.3257                 0.0000

                     49                     50                     51
                     E'                     E'                     A1'
 Frequencies --   1202.5247              1202.5247              1220.5799
 Red. masses --      1.0844                 1.0844                 1.1868
 Frc consts  --      0.9239                 0.9239                 1.0417
 IR Inten    --      0.2710                 0.2710                 0.0000

                     52                     53                     54
                     A1'                    E'                     E'
 Frequencies --   1260.9178              1284.3600              1284.3600
 Red. masses --      3.4059                 1.5852                 1.5852
 Frc consts  --      3.1904                 1.5407                 1.5407
 IR Inten    --      0.0000                 3.8419                 3.8412

                     55                     56                     57
                     A2'                    E'                     E'
 Frequencies --   1321.0898              1334.9482              1334.9482
 Red. masses --      1.5475                 3.8186                 3.8186
 Frc consts  --      1.5913                 4.0095                 4.0095
 IR Inten    --      0.0000                 1.5222                 1.5223

                     58                     59                     60
                     A1'                    E'                     E'
 Frequencies --   1375.6025              1381.8176              1381.8176
 Red. masses --      9.3677                 3.1602                 3.1602
 Frc consts  --     10.4441                 3.5552                 3.5552
 IR Inten    --      0.0000                 0.1606                 0.1604

                     61                     62                     63
                     E'                     E'                     A1'
 Frequencies --   1480.7061              1480.7061              1495.3995
 Red. masses --      2.1020                 2.1020                 2.5935
 Frc consts  --      2.7153                 2.7153                 3.4170
 IR Inten    --     20.0856                20.0885                 0.0000

                     64                     65                     66
                     A2'                    E'                     E'
 Frequencies --   1504.5392              1548.6534              1548.6534
 Red. masses --      2.5399                 2.4590                 2.4590
 Frc consts  --      3.3874                 3.4747                 3.4747
 IR Inten    --      0.0000                11.3389                11.3394

                     67                     68                     69
                     A1'                    E'                     E'
 Frequencies --   1604.8013              1633.4574              1633.4574
 Red. masses --      3.4184                 6.7783                 6.7783
 Frc consts  --      5.1870                10.6557                10.6557
 IR Inten    --      0.0000                 0.0727                 0.0726

                     70                     71                     72
                     E'                     E'                     A2'
 Frequencies --   1664.8713              1664.8713              1669.7093
 Red. masses --      5.0730                 5.0730                 5.9349
 Frc consts  --      8.2848                 8.2848                 9.7486
 IR Inten    --      0.2454                 0.2455                 0.0000

                     73                     74                     75
                     A2'                    E'                     E'
 Frequencies --   3185.2572              3186.4190              3186.4190
 Red. masses --      1.0855                 1.0862                 1.0862
 Frc consts  --      6.4890                 6.4978                 6.4978
 IR Inten    --      0.0000                 2.3972                 2.3980

                     76                     77                     78
                     E'                     E'                     A1'
 Frequencies --   3199.9165              3199.9165              3203.0675
 Red. masses --      1.0911                 1.0911                 1.0931
 Frc consts  --      6.5823                 6.5823                 6.6078
 IR Inten    --     46.6264                46.6258                 0.0000

                     79                     80                     81
                     A2'                    E'                     E'
 Frequencies --   3215.5881              3218.9105              3218.9105
 Red. masses --      1.0930                 1.0953                 1.0953
 Frc consts  --      6.6585                 6.6863                 6.6863
 IR Inten    --      0.0000                 1.1769                 1.1753

                     82                     83                     84
                     E'                     E'                     A1'
 Frequencies --   3236.9916              3236.9916              3239.3147
 Red. masses --      1.0883                 1.0883                 1.0893
 Frc consts  --      6.7185                 6.7185                 6.7342
 IR Inten    --     50.6089                50.6096                 0.0000

 - Thermochemistry -
 -------------------
 Temperature   298.150 Kelvin.  Pressure   1.00000 Atm.
 Atom     1 has atomic number  6 and mass  12.00000

 Molecular mass:   228.09390 amu.
 Principal axes and moments of inertia in atomic units:
                           1         2         3
     Eigenvalues --  3527.515513527.515517055.03101
           X            0.71666  -0.69742   0.00000
           Y            0.69742   0.71666   0.00000
           Z           -0.00000   0.00000   1.00000
 This molecule is an oblate symmetric top.
 Rotational symmetry number  6.
 Warning -- assumption of classical behavior for rotation
           may cause significant error
 Rotational temperatures (Kelvin)      0.02455     0.02455     0.01228
 Rotational constants (GHZ):           0.51162     0.51162     0.25581
 Zero-point vibrational energy     634708.9 (Joules/Mol)
                                  151.69908 (Kcal/Mol)
 Warning -- explicit consideration of  19 degrees of freedom as
           vibrations may cause significant error
 Vibrational temperatures:     72.02    72.02   153.81   178.24   378.92
          (Kelvin)            378.92   394.80   394.80   589.79   589.79
                              609.58   624.20   630.13   630.13   801.76
                              801.76   812.92   831.96   887.72   914.26
                              914.26  1025.67  1037.25  1037.25  1090.98
                             1126.25  1128.54  1128.54  1135.50  1135.50
                             1244.19  1244.19  1260.02  1330.74  1330.74
                             1361.80  1395.69  1409.82  1409.82  1460.48
                             1471.25  1471.25  1562.61  1562.61  1580.68
                             1641.81  1641.81  1696.50  1730.16  1730.16
                             1756.14  1814.18  1847.91  1847.91  1900.75
                             1920.69  1920.69  1979.19  1988.13  1988.13
                             2130.41  2130.41  2151.55  2164.70  2228.17
                             2228.17  2308.95  2350.18  2350.18  2395.38
                             2395.38  2402.34  4582.87  4584.55  4584.55
                             4603.97  4603.97  4608.50  4626.51  4631.29
                             4631.29  4657.31  4657.31  4660.65

 Zero-point correction=                           0.241748 (Hartree/Particle)
 Thermal correction to Energy=                    0.254066
 Thermal correction to Enthalpy=                  0.255010
 Thermal correction to Gibbs Free Energy=         0.204277
 Sum of electronic and zero-point Energies=           -692.939261
 Sum of electronic and thermal Energies=              -692.926943
 Sum of electronic and thermal Enthalpies=            -692.925999
 Sum of electronic and thermal Free Energies=         -692.976732

                     E (Thermal)             CV                S
                      KCal/Mol        Cal/Mol-Kelvin    Cal/Mol-Kelvin
 Total                  159.429             52.408            106.776
 Electronic               0.000              0.000              0.000
 Translational            0.889              2.981             42.176
 Rotational               0.889              2.981             29.279
 Vibrational            157.651             46.447             35.321
 Vibration     1          0.595              1.978              4.815
 Vibration     2          0.595              1.978              4.815
 Vibration     3          0.606              1.944              3.324
 Vibration     4          0.610              1.929              3.039
 Vibration     5          0.670              1.740              1.639
 Vibration     6          0.670              1.740              1.639
 Vibration     7          0.677              1.721              1.568
 Vibration     8          0.677              1.721              1.568
 Vibration     9          0.774              1.449              0.927
 Vibration    10          0.774              1.449              0.927
 Vibration    11          0.786              1.419              0.880
 Vibration    12          0.795              1.396              0.846
 Vibration    13          0.798              1.387              0.833
 Vibration    14          0.798              1.387              0.833
 Vibration    15          0.913              1.124              0.529
 Vibration    16          0.913              1.124              0.529
 Vibration    17          0.921              1.107              0.514
 Vibration    18          0.935              1.078              0.489
 Vibration    19          0.977              0.996              0.421

 Optimization completed.
    -- Stationary point found.
 Normal termination of Gaussian 16 at Fri Mar 17 10:28:40 2023.
